TITLE="HAMID MOSLEMI"
VARIABLES = "X","Y","SX","SY","SXY","EROR"
ZONE N=    165 ,E=    152 ,F=FEPOINT ,ET=Quadrilateral
  0.00000000   0.00000000  -0.04395492   0.91960121   0.13291546   1.84693002
  0.00000000   1.66666700   0.04903176   0.69360010   0.08096529   1.84693002
  1.66666700   0.00000000  -0.38469695   0.96422301   0.23481890   1.84693002
  1.17732500   1.65027800  -0.18508506   0.55073951   0.33674710   1.84693002
  0.70176000   2.18343200  -0.12553444   0.42492392   0.21574146   1.84693002
  2.15529700   1.28629800  -0.40374944   0.67845909   0.50055347   1.84693002
  3.33333300   0.00000000  -1.56959441   0.81576599   0.33828404   1.84693002
  0.00000000   3.33333300   0.03180660   0.19327525   0.08442619   1.84693002
  0.92795500   3.23335000   0.07397817   0.29011751   0.23851410   1.84693002
  3.32945100   1.00278900  -0.94458837   0.79247970   0.68824531   1.84693002
  1.85590900   3.13336700   0.09897853   0.26287471   0.46912888   1.84693002
  2.59073900   2.56947200   0.08066551   0.37312673   0.72619234   1.84693002
  3.45759100   2.12601400  -0.01232840   0.55912900   1.00728462   1.84693002
  1.43665900   4.10145500   0.21403483   0.10557615   0.17087508   1.84693002
  0.74200600   4.32252600   0.07460461   0.03800894   0.06259897   1.84693002
  2.85232800   3.38973600   0.46026541   0.11456494   0.62081117   1.84693002
  2.20804100   3.88867800   0.31295496   0.04568519   0.34680781   1.84693002
  3.58715700   2.82584100   0.73366818   0.32216934   0.93871418   1.84693002
  4.72952300   1.03752600  -1.77378247   0.96682815   0.88210804   1.84693002
  0.42462400   4.96167600  -0.01365727   0.00884770   0.00977018   1.84693002
  0.00000000   5.00000000  -0.01410247  -0.00376198   0.00488609   1.84693002
  5.00000000   0.00000000  -3.31650866   0.63500708   0.36953993   1.84693002
  1.07103900   4.89785100   0.11027149   0.05876834   0.05432713   1.84693002
  4.59662600   2.04373100  -0.27130270   0.75756501   1.31870208   1.84693002
  1.73124500   4.84339900   0.22545874   0.05305002   0.07577362   1.84693002
  3.84874700   3.64610500   1.41870569   0.32172676   0.72592877   1.84693002
  3.26800700   4.28813000   1.08846597   0.09575958   0.40888730   1.84693002
  4.58460500   2.92622000   0.91926716   0.45978072   1.25381809   1.84693002
  0.73986600   5.52762800   0.00081865   0.00692358   0.00556928   1.84693002
  2.68726800   4.93015400   0.60638179   0.02007033  -0.08890130   1.84693002
  1.42809600   5.58853200  -0.04891984  -0.06051889   0.00014173   1.84693002
  4.57561300   3.79770100   1.78611507   0.26672530   0.79028608   1.84693002
  2.10564600   5.57177900   0.26601668   0.14653063  -0.34003284   1.84693002
  5.62612400   2.08197900  -0.57740308   1.50667803   1.50312094   1.84693002
  5.99356500   1.10316700  -2.36553976   1.38487204   0.81098903   1.84693002
  5.46354400   2.99331600   1.15201977   0.99150754   1.64791906   1.84693002
  4.35658700   4.56297800   1.64185044  -0.02585135   0.21293831   1.84693002
  1.10235900   6.39874400   0.17774311   0.24765800  -0.20695106   1.84693002
  1.81353400   6.24651900   0.26781907   0.23799782  -0.43459701   1.84693002
  6.66666700   0.00000000  -4.05065494   0.84682868  -0.07588812   1.84693002
  0.00000000   6.66666700  -0.00505685  -0.00183734  -0.00392137   1.84693002
  4.09680800   5.29434500   1.23377224   0.11401466  -0.46688292   1.84693002
  6.13466300   2.95187400   0.84631250   2.39745253   2.06970015   1.84693002
  6.45075800   2.18770100  -1.43064681   2.54250159   1.13667196   1.84693002
  5.52012300   4.01000400   2.56561157   0.26668919   0.92917030   1.84693002
  2.84370500   6.41030800   0.56574506   0.32920495  -0.66885082   1.84693002
  5.18847000   4.76767700   2.13484652  -0.03457075  -0.16638364   1.84693002
  3.55942700   6.12386600   0.83071656   0.34782860  -0.74628234   1.84693002
  2.23705900   6.76454000   0.32732272   0.37943633  -0.59126999   1.84693002
  7.02175300   1.39882100  -2.77688960   2.12450061  -0.11805590   1.84693002
  1.46467800   7.05914100   0.25319637   0.58366857  -0.46089994   1.84693002
  4.89786000   5.41084700   1.44271161   0.02856516  -0.71765848   1.84693002
  6.40218300   3.79800800   3.70044442   0.36025517   1.86082209   1.52691189
  0.79306200   7.40798900   0.16115939   0.62765547  -0.35711049   1.84693002
  6.04628700   4.65165200   3.97950381   0.49000967  -0.65758314   1.84693002
  4.54023000   6.14564500   1.15976885   0.53475313  -1.00441881   1.84693002
  7.61725000   0.72920400  -3.28090746   1.50681696  -0.97073360   1.84693002
  7.24293700   2.98708000  -0.16844043   6.04600854   2.20530796   1.55800147
  2.82743300   7.34107000   0.12145747   0.57487583  -0.72352553   1.84693002
  5.72729500   5.41108600   2.37463199   0.34051449  -1.22603315   1.84693002
  1.75489600   7.68717200   0.11327254   0.68749203  -0.48301735   1.84693002
  7.58813300   2.28233600  -2.40340794   4.66612556  -0.23059574   1.53344399
  1.13868200   7.88835200   0.06066204   0.69561821  -0.37298231   1.84693002
  3.47268900   7.18104800   0.33164168   0.55666559  -0.92003369   1.84693002
  0.54282800   8.11526500   0.00707717   0.67604487  -0.23254761   1.84693002
  7.99991100   1.65378200  -2.58943363   3.24846710  -1.41398436   1.84693002
  7.29949900   3.71130200   2.64292845   2.64366240   6.70438966   0.41744175
  6.84151200   4.50221900   4.88541615   2.71669402  -1.88016645   0.46758689
  5.40830300   6.17051900   1.47870312   0.76710054  -1.31758168   1.84693002
  4.24058300   7.12651400   0.45041308   0.77436996  -1.12963663   1.84693002
  8.33333300   0.00000000  -2.55268690   0.93066476  -0.13608002   1.83111174
  0.00000000   8.33333300   0.07019739   0.48952330  -0.03463076   1.84693002
  8.16537200   1.73482900  -2.45273280   3.19094138  -2.25879703   1.84693002
  8.36181200   0.37949900  -2.58595131   0.90233165  -0.66925704   1.84693002
  8.14338900   2.02952600  -3.40042756   3.08159051  -2.43871848   1.84693002
  6.55966500   5.29111700   5.80614422   2.25136885  -2.52020309   1.84693002
  3.20866200   7.84361700  -0.23799040   0.71389112  -0.82275610   1.84693002
  8.41877000   1.13849700  -2.41876659   1.71602704  -1.92451998   1.84693002
  7.95575800   3.00295200  -1.37136260   9.56749046  -0.16175027   0.80753181
  8.12326700   2.56941900  -2.92451172   5.89175022  -1.98626666   1.16237332
  2.38269300   8.25523600  -0.29619396   0.72157280  -0.58987873   1.84693002
  1.58879300   8.46012500  -0.12863045   0.78672513  -0.39583917   1.84693002
  8.30874800   2.25922200  -3.22385808   4.17004895  -2.99979687   1.84693002
  0.83542300   8.60447200  -0.09736874   0.74246744  -0.27396025   1.84693002
  5.09638100   6.99385000   0.52603543   1.29122581  -1.41605044   1.84693002
  8.52607500   1.49189400  -2.23634224   1.54277974  -2.61617549   1.84693002
  8.49629200   1.89692200  -2.87819359   1.41856946  -3.42310561   1.55915160
  6.26612000   6.05449500   2.50211010   2.00416818  -2.41467062   1.84693002
  7.55099000   4.39201100  13.18740331   8.91727238   7.49101357   0.19543412
  3.97903600   7.82994100  -0.19763869   0.79009178  -0.99563655   1.84693002
  8.00188600   3.66811100   1.31778347  13.12505710   2.53260745   0.51716250
  8.65297800   2.23948200  -2.71306499   2.46759108  -4.02944948   1.43202182
  8.95111200   0.67883200  -1.59730250   0.55333526  -1.47386939   1.84693002
  7.36659000   5.16720600   8.06127662   2.74746116  -2.10677468   0.47858700
  8.64043100   2.73316700  -2.67867361   3.91279571  -4.62675077   1.10493277
  5.95217900   6.86118700   0.47589413   2.50813937  -1.83655211   1.84693002
  9.02386600   1.19733000  -1.20171790   0.34212765  -2.15441683   1.84693002
  2.90372900   8.62759300  -0.50015480   0.81338471  -0.62105053   1.84693002
  8.94477400   1.78853800  -2.10890262  -0.73505267  -3.42021572   1.84693002
  8.54716000   3.20812400  -2.14072855   6.92560910  -4.14296991   0.79008586
  4.79625000   7.77530300  -0.35080650   1.15981969  -1.13517650   1.84693002
  2.11910200   8.89154400  -0.43485101   0.83184219  -0.45164148   1.84693002
  8.41471400   3.61724400  -0.85592829   9.02100419  -2.83729366   0.52914417
  3.70138700   8.50711600  -0.81138444   0.73725971  -0.74185491   1.84693002
  1.41266500   9.18095700  -0.31230920   0.86321421  -0.27944823   1.84693002
  7.16271800   5.95868700   0.88492168   4.41422865  -3.31474148   1.73780676
  9.18040400   1.75390200  -1.77196382  -2.28988220  -3.15500596   1.84693002
  9.07853300   2.30600000  -2.25944152  -2.12623811  -4.27109409   0.93841619
  7.88297500   5.07885200   7.22335691  22.66250467  -7.26091202   0.22764771
  8.34387800   4.34108900  16.67759004  23.08050973  -3.94499313   0.18705942
  5.64544000   7.65961400  -0.77365352   1.72448887  -1.14142183   1.84693002
  9.48276800   1.16174400  -0.95544159  -1.00457350  -1.85627936   1.84693002
  2.56194800   9.23843800  -0.52203983   0.95801004  -0.39003946   1.84693002
  4.43388600   8.50465000  -0.99892129   0.88783552  -0.81560764   1.84693002
  6.84877700   6.76538000  -1.00904010   5.32463624  -1.51678972   1.84693002
  8.76041400   4.04673600   7.74251060   7.52876249  -5.55817578   0.25341609
  9.18186200   2.98879500  -2.37581131  -1.67780846  -5.26581598   1.11226587
  1.88042700   9.47313200  -0.44257240   0.94406301  -0.18901250   1.84693002
  9.00848300   3.58268000   1.71004293   0.60620309  -5.77126690   0.40214428
  9.46916100   2.23370300  -1.22278561  -5.25941000  -3.79323872   1.00015043
  3.46161200   9.17308200  -1.15119790   0.87274458  -0.51660689   1.84693002
  8.53733400   4.95675700  14.20504483  13.02191667   5.37301543   0.32593853
  9.72680100   1.69574500   0.14493061  -3.17563473  -1.28820719   1.14922959
  7.94924700   5.87809100  -1.85598280   9.20329934  -2.27698066   0.66936394
  6.50717200   7.52594900  -1.55437056   2.51308926  -0.76320407   1.84693002
  0.00000000  10.00000000  -0.09416677   0.91790274  -0.13215661   1.84693002
 10.00000000   0.00000000  -0.59684560   0.27921930  -0.84654137   1.84693002
  5.32619400   8.47610800  -1.29366926   1.34193264  -0.78317407   1.84693002
  1.66666700  10.00000000  -0.41280568   0.99433289  -0.07139677   1.84693002
 10.00000000   1.66666700   0.07271885  -4.66841180   0.04406126   0.68301051
  9.04689600   4.65331600  12.40804361  -1.05220092  -0.71583343   0.31478977
  9.47779700   4.11886600   3.23218932 -13.97126242  -1.92513744   0.32508000
  4.72902100   9.20556800  -1.74391620   1.01333617  -0.47726597   1.84693002
  6.18195900   8.34335200  -1.70145963   1.81808698  -0.46125222   1.84693002
  7.97949600   6.65466600  -1.74364862   6.54811872   1.14955986   1.26889278
  8.74545600   5.73750000  -0.01091299   6.04520448   3.87996218   0.55102903
  7.39154900   7.44008400  -2.31217512   3.28103686   0.31533384   1.84693002
  3.33333300  10.00000000  -1.21298163   0.91921988  -0.26790260   1.84693002
 10.00000000   3.33333300  -1.21958909 -14.27643019  -2.74340267   0.53602323
  7.03952600   8.14290500  -2.05199802   2.24936312   0.27235154   1.84693002
  9.37950700   5.48683600   2.19967183  -9.89945398   3.67929301   0.42353687
  5.87325800   9.14677600  -2.12004157   1.23646220  -0.36710940   1.84693002
  9.72567600   4.88986300  -5.97729851 -20.43578966  -1.31376324   0.19402086
  8.24727400   7.30707300  -2.24488117   3.18064666   2.10397516   1.84693002
  8.88911700   6.53810900  -2.00606969   1.68208602   3.27723202   1.66526503
 10.00000000   5.00000000  -6.01246185 -26.33322880  -0.31267749   0.34441587
  5.00000000  10.00000000  -2.57710243   0.78973944  -0.15976737   1.84693002
  6.77114900   8.90542700  -2.17567706   1.52043149   0.18470956   1.84693002
  7.89344800   8.07758500  -2.04483032   2.18631974   1.30830066   1.84693002
  8.80910900   7.10744300  -2.56015875  -0.07385503   2.96218042   1.84693002
  7.57555700   8.62469400  -1.99615540   1.63776446   0.83724257   1.84693002
  8.74917300   7.94457400  -1.94375782   0.64469266   2.40634510   1.84693002
  9.29093700   7.47714800  -1.87563835  -1.95950061   3.06485597   1.84693002
  7.39472900   9.43866500  -2.24593278   1.19958028   0.60845347   1.84693002
 10.00000000   6.66666700  -1.08601830  -8.67824579   3.62506497   1.02759771
  6.66666700  10.00000000  -2.78521946   0.85820131   0.12418645   1.84693002
  8.33364100   8.67759800  -1.32600237   1.43414058   1.27509770   1.84693002
  7.88108300   9.16963600  -1.73405677   1.58783981   0.95281007   1.84693002
  9.58305800   8.20374700  -0.28891528  -1.29729866   1.32096036   1.84693002
  9.19087800   8.66000100  -1.13118763  -0.09747939   1.58200246   1.84693002
  8.26001900   9.67959700  -1.83983040   0.74442705   0.36897141   1.84693002
  8.61868600   9.38170800  -1.15790409   1.04899884   0.82549694   1.84693002
  8.33333300  10.00000000  -1.51874808   0.92175982   0.04625781   1.84693002
 10.00000000   8.33333300   0.00425357  -2.16542902   0.40025793   1.11525458
 10.00000000  10.00000000  -0.33171249   0.75755398   0.53562941   1.84693002
    19     22     40     35
    19     35     34     24
    19     24     13     10
    19     10      7     22
    50     44     34     35
    50     35     40     57
    50     57     78     66
    50     66     62     44
    97     93    127    112
    97    112    107     99
    97     99     87     86
    97     86     78     93
   119    100     95    117
   119    117    139    132
   119    132    131    116
   119    116    103    100
    79     80     95    100
    79    100    103     91
    79     91     67     58
    79     58     62     80
   110    116    131    122
   110    122    109     89
   110     89     67     91
   110     91    103    116
   136    122    131    141
   136    141    155    145
   136    145    135    124
   136    124    109    122
    68     89    109     94
    68     94     76     55
    68     55     45     53
    68     53     67     89
    43     44     62     58
    43     58     67     53
    43     53     45     36
    43     36     34     44
   106     94    109    124
   106    124    135    115
   106    115     96     88
   106     88     76     94
    60     47     45     55
    60     55     76     88
    60     88     96     69
    60     69     52     47
    28     36     45     32
    28     32     26     18
    28     18     13     24
    28     24     34     36
    37     32     45     47
    37     47     52     42
    37     42     30     27
    37     27     26     32
    16     12     13     18
    16     18     26     27
    16     27     30     17
    16     17     11     12
     6      3      7     10
     6     10     13     12
     6     12     11      4
     6      4      1      3
   137    125     96    115
   137    115    135    144
   137    144    152    149
   137    149    140    125
    14     17     30     25
    14     25     23     15
    14     15      8      9
    14      9     11     17
   111    125    140    134
   111    134    128    101
   111    101     70     85
   111     85     96    125
   148    142    128    134
   148    134    140    151
   148    151    158    154
   148    154    156    142
    46     49     39     33
    46     33     30     48
    46     48     70     64
    46     64     59     49
    51     54     41     38
    51     38     39     49
    51     49     59     61
    51     61     63     54
    90     77     59     64
    90     64     70    101
    90    101    128    114
    90    114    104     77
   133    121    104    114
   133    114    128    142
   133    142    156    147
   133    147    138    121
    98    121    138    113
    98    113    102     81
    98     81     59     77
    98     77    104    121
   108    120    139    117
   108    117     95     92
   108     92     87     99
   108     99    107    120
    31     25     30     33
    31     33     39     38
    31     38     41     29
    31     29     23     25
   157    151    140    149
   157    149    152    160
   157    160    165    162
   157    162    158    151
    82     61     59     81
    82     81    102    105
    82    105    126     84
    82     84     63     61
    56     69     96     85
    56     85     70     48
    56     48     30     42
    56     42     52     69
     1      4      5      2
    11      9      5      4
     8      2      5      9
    78     57     74     93
    40     71     74     57
   127     93     74     71
   107    112    123    120
   127    130    123    112
   139    120    123    130
    87     92     83     75
    95     80     83     92
    62     75     83     80
    78     86     73     66
    87     75     73     86
    62     66     73     75
   131    132    143    141
   139    146    143    132
   155    141    143    146
     8     15     20     21
    23     29     20     15
    41     21     20     29
   152    144    150    153
   135    145    150    144
   155    153    150    145
    41     54     65     72
    63     84     65     54
   126     72     65     84
   102    113    118    105
   138    129    118    113
   126    105    118    129
   156    154    161    163
   158    162    161    154
   165    163    161    162
   152    153    159    160
   155    164    159    153
   165    160    159    164
